TITLE = "Visualization of the solid solution"
VARIABLES = "x""y""z""Ux""Uy""Uz""Fx""Fy""Fz""Sigma"
ZONE STRANDID=2, SOLUTIONTIME=1, NODES= 10467, ELEMENTS= 45513, DATAPACKING=POINT, ZONETYPE=FETETRAHEDRON
1.00008e+00  	  1.45300e-03 	 	 0.00000e+00	8.21615e-05	1.92693e-04	0.00000e+00 	 3.62700e-03 	 -1.35600e-02 	 2.00000e-06 	 6.36273e+03
9.98096e-01  	  1.69200e-03 	 	 0.00000e+00	7.55795e-05	1.51735e-04	0.00000e+00 	 0.00000e+00 	 0.00000e+00 	 0.00000e+00 	 9.82453e+03
9.95941e-01  	  1.94900e-03 	 	 0.00000e+00	7.11649e-05	1.08837e-04	0.00000e+00 	 0.00000e+00 	 0.00000e+00 	 0.00000e+00 	 7.69843e+03
9.93617e-01  	  2.22500e-03 	 	 0.00000e+00	6.65917e-05	6.54020e-05	0.00000e+00 	 0.00000e+00 	 0.00000e+00 	 0.00000e+00 	 6.36396e+03
9.91105e-01  	  2.53000e-03 	 	 0.00000e+00	6.51926e-05	1.99916e-05	0.00000e+00 	 -1.64570e-02 	 -9.47010e-02 	 1.14000e-04 	 4.71971e+03
9.88387e-01  	  2.88300e-03 	 	 0.00000e+00	6.67264e-05	-7.18292e-06	0.00000e+00 	 0.00000e+00 	 0.00000e+00 	 0.00000e+00 	 7.22507e+03
9.85446e-01  	  3.25500e-03 	 	 0.00000e+00	6.60804e-05	-3.46832e-05	0.00000e+00 	 0.00000e+00 	 0.00000e+00 	 0.00000e+00 	 7.67931e+03
9.82275e-01  	  3.67000e-03 	 	 0.00000e+00	6.51401e-05	-6.03523e-05	0.00000e+00 	 0.00000e+00 	 0.00000e+00 	 0.00000e+00 	 7.29139e+03
9.78843e-01  	  4.11300e-03 	 	 0.00000e+00	6.34491e-05	-8.68803e-05	0.00000e+00 	 -5.85600e-03 	 -3.54520e-02 	 1.70000e-05 	 5.09087e+03
9.75133e-01  	  4.59400e-03 	 	 0.00000e+00	6.28938e-05	-1.06246e-04	0.00000e+00 	 0.00000e+00 	 0.00000e+00 	 0.00000e+00 	 6.47848e+03
9.71143e-01  	  5.12100e-03 	 	 0.00000e+00	6.34240e-05	-1.28897e-04	0.00000e+00 	 -5.71600e-03 	 -3.65220e-02 	 2.50000e-05 	 5.12394e+03
9.66837e-01  	  5.68800e-03 	 	 0.00000e+00	6.68586e-05	-1.42342e-04	0.00000e+00 	 0.00000e+00 	 0.00000e+00 	 0.00000e+00 	 7.08657e+03
9.62201e-01  	  6.29700e-03 	 	 0.00000e+00	7.05619e-05	-1.52770e-04	0.00000e+00 	 0.00000e+00 	 0.00000e+00 	 0.00000e+00 	 6.56588e+03
9.57204e-01  	  6.96000e-03 	 	 0.00000e+00	7.44100e-05	-1.59777e-04	0.00000e+00 	 -8.52700e-03 	 -5.63640e-02 	 5.30000e-05 	 4.61134e+03
9.51828e-01  	  7.67300e-03 	 	 0.00000e+00	7.83197e-05	-1.56523e-04	0.00000e+00 	 0.00000e+00 	 0.00000e+00 	 0.00000e+00 	 5.26410e+03
9.46050e-01  	  8.44700e-03 	 	 0.00000e+00	8.02616e-05	-1.53249e-04	0.00000e+00 	 -8.38700e-03 	 -5.94080e-02 	 5.40000e-05 	 4.11587e+03
9.39842e-01  	  9.26700e-03 	 	 0.00000e+00	8.24999e-05	-1.42504e-04	0.00000e+00 	 0.00000e+00 	 0.00000e+00 	 0.00000e+00 	 4.66267e+03
9.33174e-01  	  1.01490e-02 	 	 0.00000e+00	8.37201e-05	-1.30700e-04	0.00000e+00 	 4.05000e-03 	 2.93420e-02 	 -2.00000e-06 	 3.25907e+03
9.26033e-01  	  1.10830e-02 	 	 0.00000e+00	8.32050e-05	-1.17411e-04	0.00000e+00 	 0.00000e+00 	 0.00000e+00 	 0.00000e+00 	 3.68931e+03
9.18391e-01  	  1.20670e-02 	 	 0.00000e+00	8.14444e-05	-1.02758e-04	0.00000e+00 	 3.43600e-03 	 2.58140e-02 	 2.00000e-06 	 2.82984e+03
9.10209e-01  	  1.31230e-02 	 	 0.00000e+00	7.86803e-05	-8.71214e-05	0.00000e+00 	 9.64000e-04 	 7.07500e-03 	 5.00000e-06 	 2.69815e+03
9.01475e-01  	  1.42270e-02 	 	 0.00000e+00	7.47181e-05	-7.26697e-05	0.00000e+00 	 0.00000e+00 	 0.00000e+00 	 0.00000e+00 	 3.17796e+03
8.92160e-01  	  1.54010e-02 	 	 0.00000e+00	6.96878e-05	-5.93205e-05	0.00000e+00 	 3.80000e-05 	 -2.08000e-04 	 6.00000e-06 	 2.50523e+03
8.82244e-01  	  1.66240e-02 	 	 0.00000e+00	6.41319e-05	-4.64371e-05	0.00000e+00 	 4.00300e-03 	 3.21620e-02 	 1.00000e-06 	 2.46224e+03
8.71698e-01  	  1.79120e-02 	 	 0.00000e+00	5.77956e-05	-3.79266e-05	0.00000e+00 	 4.71900e-03 	 3.86920e-02 	 2.00000e-06 	 2.43180e+03
8.60512e-01  	  1.92560e-02 	 	 0.00000e+00	5.15879e-05	-3.41038e-05	0.00000e+00 	 0.00000e+00 	 0.00000e+00 	 0.00000e+00 	 2.64377e+03
8.48656e-01  	  2.06620e-02 	 	 0.00000e+00	4.62040e-05	-2.80693e-05	0.00000e+00 	 7.25300e-03 	 6.08530e-02 	 1.00000e-06 	 1.94461e+03
8.36121e-01  	  2.21230e-02 	 	 0.00000e+00	4.13051e-05	-2.65791e-05	0.00000e+00 	 7.73900e-03 	 6.61400e-02 	 5.00000e-06 	 1.68199e+03
8.22888e-01  	  2.36440e-02 	 	 0.00000e+00	3.76079e-05	-2.58142e-05	0.00000e+00 	 1.05170e-02 	 9.17140e-02 	 6.00000e-06 	 1.52691e+03
8.08955e-01  	  2.52140e-02 	 	 0.00000e+00	3.47990e-05	-2.57734e-05	0.00000e+00 	 1.13150e-02 	 1.00533e-01 	 8.00000e-06 	 1.31707e+03
7.94323e-01  	  2.68350e-02 	 	 0.00000e+00	3.33027e-05	-2.53516e-05	0.00000e+00 	 1.56910e-02 	 1.42348e-01 	 2.00000e-05 	 1.26735e+03
7.78983e-01  	  2.85050e-02 	 	 0.00000e+00	3.26842e-05	-2.47976e-05	0.00000e+00 	 1.50520e-02 	 1.39166e-01 	 1.70000e-05 	 1.16245e+03
7.62932e-01  	  3.02280e-02 	 	 0.00000e+00	3.24162e-05	-2.15825e-05	0.00000e+00 	 1.56270e-02 	 1.47445e-01 	 2.50000e-05 	 1.16875e+03
7.46192e-01  	  3.19820e-02 	 	 0.00000e+00	3.15621e-05	-1.76881e-05	0.00000e+00 	 1.46610e-02 	 1.41329e-01 	 2.10000e-05 	 1.14403e+03
7.28780e-01  	  3.37770e-02 	 	 0.00000e+00	3.02110e-05	-1.26976e-05	0.00000e+00 	 1.41470e-02 	 1.39544e-01 	 1.90000e-05 	 1.08794e+03
7.10708e-01  	  3.55820e-02 	 	 0.00000e+00	2.82010e-05	-8.09400e-06	0.00000e+00 	 1.41660e-02 	 1.43273e-01 	 2.00000e-05 	 1.02640e+03
6.92016e-01  	  3.74060e-02 	 	 0.00000e+00	2.56764e-05	-3.88618e-06	0.00000e+00 	 1.80030e-02 	 1.87239e-01 	 3.60000e-05 	 9.81530e+02
6.72733e-01  	  3.92390e-02 	 	 0.00000e+00	2.29112e-05	-7.52032e-07	0.00000e+00 	 1.66620e-02 	 1.78056e-01 	 2.80000e-05 	 9.04368e+02
6.52910e-01  	  4.10630e-02 	 	 0.00000e+00	2.01656e-05	2.90765e-06	0.00000e+00 	 1.22720e-02 	 1.34722e-01 	 2.20000e-05 	 8.13844e+02
6.32587e-01  	  4.28750e-02 	 	 0.00000e+00	1.72447e-05	4.97805e-06	0.00000e+00 	 1.15660e-02 	 1.31031e-01 	 2.40000e-05 	 7.83892e+02
6.11814e-01  	  4.46570e-02 	 	 0.00000e+00	1.44485e-05	7.39985e-06	0.00000e+00 	 1.77280e-02 	 2.08437e-01 	 3.90000e-05 	 8.22662e+02
5.90672e-01  	  4.63990e-02 	 	 0.00000e+00	1.17641e-05	9.41657e-06	0.00000e+00 	 1.62800e-02 	 1.98092e-01 	 3.90000e-05 	 8.56353e+02
5.69209e-01  	  4.81000e-02 	 	 0.00000e+00	8.55167e-06	1.95888e-05	0.00000e+00 	 3.03040e-02 	 3.93221e-01 	 1.23000e-04 	 1.06124e+03
5.47495e-01  	  4.97190e-02 	 	 0.00000e+00	4.98711e-06	9.09300e-06	0.00000e+00 	 1.76870e-02 	 2.47515e-01 	 4.70000e-05 	 6.89610e+02
5.25602e-01  	  5.12580e-02 	 	 0.00000e+00	2.31790e-06	7.87812e-06	0.00000e+00 	 1.71830e-02 	 2.52352e-01 	 5.50000e-05 	 6.63295e+02
5.03621e-01  	  5.27170e-02 	 	 0.00000e+00	7.46427e-07	6.90383e-06	0.00000e+00 	 1.63960e-02 	 2.54844e-01 	 4.60000e-05 	 6.49354e+02
4.81609e-01  	  5.40690e-02 	 	 0.00000e+00	-6.86014e-07	8.62022e-06	0.00000e+00 	 1.50570e-02 	 2.49351e-01 	 5.40000e-05 	 9.26478e+02
4.59657e-01  	  5.53150e-02 	 	 0.00000e+00	-3.30418e-06	1.46739e-05	0.00000e+00 	 2.66420e-02 	 4.95953e-01 	 1.77000e-04 	 1.11079e+03
4.37834e-01  	  5.64180e-02 	 	 0.00000e+00	-6.13060e-06	7.51069e-06	0.00000e+00 	 1.14340e-02 	 2.45605e-01 	 6.60000e-05 	 1.13922e+03
4.16212e-01  	  5.73970e-02 	 	 0.00000e+00	-8.09762e-06	7.27579e-06	0.00000e+00 	 1.00210e-02 	 2.39167e-01 	 6.00000e-05 	 1.17292e+03
3.94870e-01  	  5.82290e-02 	 	 0.00000e+00	-9.65264e-06	8.61544e-06	0.00000e+00 	 8.98400e-03 	 2.42934e-01 	 6.50000e-05 	 1.26794e+03
3.73869e-01  	  5.89150e-02 	 	 0.00000e+00	-1.12075e-05	1.54009e-05	0.00000e+00 	 1.36450e-02 	 4.75009e-01 	 2.40000e-04 	 1.48164e+03
3.53277e-01  	  5.94300e-02 	 	 0.00000e+00	-1.28889e-05	9.62549e-06	0.00000e+00 	 4.64300e-03 	 2.31649e-01 	 7.90000e-05 	 1.28955e+03
3.33156e-01  	  5.97910e-02 	 	 0.00000e+00	-1.41363e-05	1.06074e-05	0.00000e+00 	 3.32300e-03 	 2.33405e-01 	 7.80000e-05 	 1.87358e+03
3.13554e-01  	  5.99930e-02 	 	 0.00000e+00	-1.61312e-05	1.27867e-05	0.00000e+00 	 1.84900e-03 	 2.25817e-01 	 8.70000e-05 	 2.82401e+03
2.94521e-01  	  6.00290e-02 	 	 0.00000e+00	-1.91869e-05	1.93279e-05	0.00000e+00 	 -8.68000e-04 	 4.44421e-01 	 2.31000e-04 	 4.31877e+03
2.76087e-01  	  5.99020e-02 	 	 0.00000e+00	-2.28511e-05	1.17773e-05	0.00000e+00 	 -2.88400e-03 	 2.16715e-01 	 9.50000e-05 	 7.03570e+03
2.58302e-01  	  5.96070e-02 	 	 0.00000e+00	-2.76120e-05	6.99442e-06	0.00000e+00 	 -4.39700e-03 	 2.08390e-01 	 7.60000e-05 	 8.26662e+03
2.41179e-01  	  5.91760e-02 	 	 0.00000e+00	-3.14966e-05	6.07591e-06	0.00000e+00 	 -1.29010e-02 	 4.03682e-01 	 2.50000e-04 	 8.96999e+03
2.24757e-01  	  5.85840e-02 	 	 0.00000e+00	-3.32287e-05	-5.57915e-06	0.00000e+00 	 -8.85200e-03 	 1.96255e-01 	 8.40000e-05 	 9.74131e+03
2.09037e-01  	  5.78600e-02 	 	 0.00000e+00	-3.33129e-05	-9.73861e-06	0.00000e+00 	 -9.79300e-03 	 1.88165e-01 	 7.80000e-05 	 1.17614e+04
1.94027e-01  	  5.70090e-02 	 	 0.00000e+00	-3.34418e-05	-1.06413e-05	0.00000e+00 	 -1.08760e-02 	 1.83647e-01 	 7.40000e-05 	 1.43649e+04
1.79747e-01  	  5.60450e-02 	 	 0.00000e+00	-3.32179e-05	-5.07173e-06	0.00000e+00 	 -2.59690e-02 	 3.59977e-01 	 1.95000e-04 	 1.55986e+04
1.66179e-01  	  5.49620e-02 	 	 0.00000e+00	-3.08598e-05	-7.52977e-06	0.00000e+00 	 -1.51580e-02 	 1.77639e-01 	 9.20000e-05 	 1.76157e+04
1.53322e-01  	  5.37840e-02 	 	 0.00000e+00	-2.80774e-05	-5.73388e-06	0.00000e+00 	 -1.66760e-02 	 1.77057e-01 	 1.09000e-04 	 1.84557e+04
1.41165e-01  	  5.25110e-02 	 	 0.00000e+00	-2.51421e-05	7.88044e-07	0.00000e+00 	 -3.73040e-02 	 3.39786e-01 	 3.27000e-04 	 1.86163e+04
1.29710e-01  	  5.11560e-02 	 	 0.00000e+00	-1.96348e-05	-3.79748e-06	0.00000e+00 	 -2.03440e-02 	 1.62903e-01 	 1.10000e-04 	 1.87753e+04
1.18916e-01  	  4.97260e-02 	 	 0.00000e+00	-1.38416e-05	-3.69227e-06	0.00000e+00 	 -2.07610e-02 	 1.53648e-01 	 1.05000e-04 	 1.89364e+04
1.08782e-01  	  4.82510e-02 	 	 0.00000e+00	-8.25466e-06	5.11644e-07	0.00000e+00 	 -4.33320e-02 	 2.83239e-01 	 2.90000e-04 	 1.86047e+04
9.92700e-02  	  4.66950e-02 	 	 0.00000e+00	-3.28353e-07	-5.34015e-06	0.00000e+00 	 -2.22540e-02 	 1.30340e-01 	 9.70000e-05 	 1.85099e+04
9.03770e-02  	  4.51140e-02 	 	 0.00000e+00	7.27428e-06	-6.41242e-06	0.00000e+00 	 -2.27760e-02 	 1.24527e-01 	 9.60000e-05 	 1.80829e+04
8.20640e-02  	  4.34940e-02 	 	 0.00000e+00	1.40167e-05	-6.02182e-06	0.00000e+00 	 -4.65650e-02 	 2.28581e-01 	 2.22000e-04 	 1.73357e+04
7.43130e-02  	  4.18270e-02 	 	 0.00000e+00	2.28627e-05	-1.27214e-05	0.00000e+00 	 -2.35020e-02 	 1.04380e-01 	 7.50000e-05 	 1.75847e+04
6.71010e-02  	  4.01540e-02 	 	 0.00000e+00	3.11457e-05	-1.60205e-05	0.00000e+00 	 -2.33710e-02 	 9.73920e-02 	 7.40000e-05 	 1.78361e+04
6.03990e-02  	  3.84540e-02 	 	 0.00000e+00	3.88627e-05	-1.60586e-05	0.00000e+00 	 -4.69210e-02 	 1.77160e-01 	 2.14000e-04 	 1.69475e+04
5.41880e-02  	  3.67370e-02 	 	 0.00000e+00	4.76944e-05	-2.30882e-05	0.00000e+00 	 -2.33880e-02 	 8.01200e-02 	 6.90000e-05 	 1.63353e+04
4.84360e-02  	  3.50230e-02 	 	 0.00000e+00	5.57067e-05	-2.68378e-05	0.00000e+00 	 -2.29140e-02 	 7.37150e-02 	 6.00000e-05 	 1.59352e+04
4.31130e-02  	  3.33000e-02 	 	 0.00000e+00	6.33302e-05	-3.01419e-05	0.00000e+00 	 -2.28540e-02 	 6.89890e-02 	 6.60000e-05 	 1.59853e+04
3.82110e-02  	  3.15780e-02 	 	 0.00000e+00	7.05084e-05	-3.19358e-05	0.00000e+00 	 -4.44490e-02 	 1.21924e-01 	 1.70000e-04 	 1.50753e+04
3.36990e-02  	  2.98510e-02 	 	 0.00000e+00	7.88843e-05	-3.85534e-05	0.00000e+00 	 -2.13740e-02 	 5.30110e-02 	 5.70000e-05 	 1.39689e+04
2.95560e-02  	  2.81280e-02 	 	 0.00000e+00	8.58726e-05	-4.19127e-05	0.00000e+00 	 -2.11430e-02 	 4.90910e-02 	 5.30000e-05 	 1.31012e+04
2.57630e-02  	  2.64150e-02 	 	 0.00000e+00	9.25090e-05	-4.52205e-05	0.00000e+00 	 -2.01460e-02 	 4.37490e-02 	 5.60000e-05 	 1.29140e+04
2.23080e-02  	  2.47140e-02 	 	 0.00000e+00	9.81842e-05	-4.62906e-05	0.00000e+00 	 -3.83620e-02 	 7.52630e-02 	 1.46000e-04 	 1.26862e+04
1.91560e-02  	  2.30180e-02 	 	 0.00000e+00	1.06399e-04	-5.18641e-05	0.00000e+00 	 -1.81460e-02 	 3.17240e-02 	 5.00000e-05 	 1.18877e+04
1.63130e-02  	  2.13340e-02 	 	 0.00000e+00	1.13122e-04	-5.59653e-05	0.00000e+00 	 -1.66750e-02 	 2.70420e-02 	 4.20000e-05 	 1.08216e+04
1.37490e-02  	  1.96620e-02 	 	 0.00000e+00	1.18678e-04	-5.79330e-05	0.00000e+00 	 -1.60810e-02 	 2.40930e-02 	 4.60000e-05 	 1.15726e+04
1.14440e-02  	  1.80100e-02 	 	 0.00000e+00	1.23806e-04	-5.95515e-05	0.00000e+00 	 -2.57260e-02 	 3.40800e-02 	 8.80000e-05 	 9.64090e+03
9.40000e-03  	  1.63670e-02 	 	 0.00000e+00	1.29769e-04	-6.28832e-05	0.00000e+00 	 -8.79000e-03 	 1.00780e-02 	 2.50000e-05 	 9.00733e+03
7.60500e-03  	  1.47450e-02 	 	 0.00000e+00	1.35094e-04	-6.51240e-05	0.00000e+00 	 -7.28300e-03 	 7.57400e-03 	 1.80000e-05 	 8.79446e+03
6.02900e-03  	  1.31540e-02 	 	 0.00000e+00	1.39453e-04	-6.61221e-05	0.00000e+00 	 -6.22700e-03 	 5.80800e-03 	 1.50000e-05 	 8.35419e+03
4.69400e-03  	  1.15830e-02 	 	 0.00000e+00	1.43724e-04	-6.73554e-05	0.00000e+00 	 -5.40900e-03 	 4.46600e-03 	 1.30000e-05 	 9.12018e+03
3.55700e-03  	  1.00530e-02 	 	 0.00000e+00	1.47490e-04	-6.73037e-05	0.00000e+00 	 -5.12000e-03 	 3.73400e-03 	 1.40000e-05 	 1.03313e+04
2.62200e-03  	  8.55200e-03 	 	 0.00000e+00	1.52367e-04	-6.82015e-05	0.00000e+00 	 7.29000e-04 	 3.00000e-06 	 -1.00000e-06 	 9.29229e+03
1.87600e-03  	  7.11200e-03 	 	 0.00000e+00	1.55882e-04	-6.80912e-05	0.00000e+00 	 5.34400e-03 	 -2.42600e-03 	 -1.30000e-05 	 8.77723e+03
1.26800e-03  	  5.74200e-03 	 	 0.00000e+00	1.57972e-04	-6.75051e-05	0.00000e+00 	 1.12700e-03 	 -3.47000e-04 	 -3.00000e-06 	 8.82390e+03
9.59000e-04  	  4.40400e-03 	 	 0.00000e+00	1.59222e-04	-6.63391e-05	0.00000e+00 	 1.34700e-03 	 -2.39000e-04 	 -3.00000e-06 	 9.13480e+03
7.41000e-04  	  3.14500e-03 	 	 0.00000e+00	1.60727e-04	-6.52529e-05	0.00000e+00 	 2.74300e-03 	 -4.89000e-04 	 -6.00000e-06 	 9.09882e+03
5.32000e-04  	  1.98600e-03 	 	 0.00000e+00	1.62364e-04	-6.42025e-05	0.00000e+00 	 3.04100e-03 	 -5.44000e-04 	 -7.00000e-06 	 8.84849e+03
3.43000e-04  	  9.17000e-04 	 	 0.00000e+00	1.62661e-04	-6.31834e-05	0.00000e+00 	 3.78200e-03 	 -6.80000e-04 	 -9.00000e-06 	 8.79327e+03
1.63000e-04  	  -6.20000e-05 	 	 0.00000e+00	1.63343e-04	-6.23937e-05	0.00000e+00 	 3.76100e-03 	 1.00000e-06 	 -9.00000e-06 	 8.77586e+03
3.43000e-04  	  -1.04100e-03 	 	 0.00000e+00	1.63045e-04	-6.14742e-05	0.00000e+00 	 3.53800e-03 	 6.37000e-04 	 -9.00000e-06 	 9.79581e+03
5.33000e-04  	  -2.11000e-03 	 	 0.00000e+00	1.63303e-04	-6.02878e-05	0.00000e+00 	 3.53000e-03 	 6.34000e-04 	 -8.00000e-06 	 9.15819e+03
7.43000e-04  	  -3.26900e-03 	 	 0.00000e+00	1.62988e-04	-5.91322e-05	0.00000e+00 	 1.99900e-03 	 3.57000e-04 	 -5.00000e-06 	 9.35056e+03
9.62000e-04  	  -4.52800e-03 	 	 0.00000e+00	1.61799e-04	-5.80000e-05	0.00000e+00 	 1.44500e-03 	 2.57000e-04 	 -4.00000e-06 	 9.13013e+03
1.27100e-03  	  -5.86700e-03 	 	 0.00000e+00	1.60732e-04	-5.70391e-05	0.00000e+00 	 1.95000e-04 	 5.80000e-05 	 -1.00000e-06 	 9.16386e+03
1.87900e-03  	  -7.23600e-03 	 	 0.00000e+00	1.59398e-04	-5.60725e-05	0.00000e+00 	 -9.05000e-04 	 -4.15000e-04 	 2.00000e-06 	 9.29510e+03
2.62700e-03  	  -8.67500e-03 	 	 0.00000e+00	1.56742e-04	-5.53930e-05	0.00000e+00 	 -5.68000e-03 	 -3.36400e-03 	 1.70000e-05 	 9.72350e+03
3.56400e-03  	  -1.01750e-02 	 	 0.00000e+00	1.54198e-04	-5.46367e-05	0.00000e+00 	 -5.43100e-03 	 -3.96500e-03 	 1.50000e-05 	 9.46947e+03
4.70100e-03  	  -1.17040e-02 	 	 0.00000e+00	1.51211e-04	-5.42796e-05	0.00000e+00 	 -6.68400e-03 	 -5.52200e-03 	 1.70000e-05 	 8.74605e+03
6.03800e-03  	  -1.32750e-02 	 	 0.00000e+00	1.47767e-04	-5.46203e-05	0.00000e+00 	 -9.13500e-03 	 -8.52300e-03 	 2.20000e-05 	 8.79703e+03
7.61300e-03  	  -1.48660e-02 	 	 0.00000e+00	1.43472e-04	-5.55851e-05	0.00000e+00 	 -1.02220e-02 	 -1.06310e-02 	 2.60000e-05 	 9.40775e+03
9.40900e-03  	  -1.64870e-02 	 	 0.00000e+00	1.38607e-04	-5.70702e-05	0.00000e+00 	 -1.23820e-02 	 -1.42080e-02 	 3.50000e-05 	 9.88285e+03
1.14540e-02  	  -1.81280e-02 	 	 0.00000e+00	1.34357e-04	-5.81470e-05	0.00000e+00 	 -2.86330e-02 	 -3.80010e-02 	 9.60000e-05 	 9.97616e+03
1.37600e-02  	  -1.97780e-02 	 	 0.00000e+00	1.29957e-04	-5.79700e-05	0.00000e+00 	 -1.59350e-02 	 -2.38960e-02 	 4.60000e-05 	 1.04978e+04
1.63250e-02  	  -2.14490e-02 	 	 0.00000e+00	1.25183e-04	-5.89382e-05	0.00000e+00 	 -1.68500e-02 	 -2.73620e-02 	 4.40000e-05 	 1.09135e+04
1.91700e-02  	  -2.31300e-02 	 	 0.00000e+00	1.20019e-04	-6.02542e-05	0.00000e+00 	 -1.76290e-02 	 -3.08660e-02 	 5.10000e-05 	 1.15740e+04
2.23230e-02  	  -2.48240e-02 	 	 0.00000e+00	1.12961e-04	-6.40566e-05	0.00000e+00 	 -4.17930e-02 	 -8.19590e-02 	 1.65000e-04 	 1.23937e+04
2.57790e-02  	  -2.65220e-02 	 	 0.00000e+00	1.08522e-04	-6.22506e-05	0.00000e+00 	 -2.05820e-02 	 -4.47570e-02 	 5.40000e-05 	 1.26724e+04
2.95730e-02  	  -2.82330e-02 	 	 0.00000e+00	1.02710e-04	-6.33354e-05	0.00000e+00 	 -2.03710e-02 	 -4.73660e-02 	 4.70000e-05 	 1.28778e+04
3.37160e-02  	  -2.99540e-02 	 	 0.00000e+00	9.60559e-05	-6.44610e-05	0.00000e+00 	 -2.13420e-02 	 -5.30130e-02 	 5.10000e-05 	 1.37885e+04
3.82280e-02  	  -3.16780e-02 	 	 0.00000e+00	8.82716e-05	-6.78842e-05	0.00000e+00 	 -4.08100e-02 	 -1.11910e-01 	 1.44000e-04 	 1.41872e+04
4.31330e-02  	  -3.33960e-02 	 	 0.00000e+00	8.27257e-05	-6.60612e-05	0.00000e+00 	 -1.96040e-02 	 -5.93160e-02 	 5.70000e-05 	 1.47548e+04
4.84560e-02  	  -3.51160e-02 	 	 0.00000e+00	7.57433e-05	-6.57387e-05	0.00000e+00 	 -1.96610e-02 	 -6.34020e-02 	 5.30000e-05 	 1.49729e+04
5.42090e-02  	  -3.68260e-02 	 	 0.00000e+00	6.85392e-05	-6.56948e-05	0.00000e+00 	 -2.01970e-02 	 -6.93470e-02 	 5.90000e-05 	 1.51538e+04
6.04200e-02  	  -3.85390e-02 	 	 0.00000e+00	5.96348e-05	-6.94024e-05	0.00000e+00 	 -4.52100e-02 	 -1.70896e-01 	 2.02000e-04 	 1.62356e+04
6.71230e-02  	  -4.02360e-02 	 	 0.00000e+00	5.26328e-05	-6.64464e-05	0.00000e+00 	 -2.32660e-02 	 -9.71910e-02 	 8.10000e-05 	 1.64854e+04
7.43350e-02  	  -4.19050e-02 	 	 0.00000e+00	4.49320e-05	-6.51714e-05	0.00000e+00 	 -2.32200e-02 	 -1.03375e-01 	 7.80000e-05 	 1.67877e+04
8.20860e-02  	  -4.35680e-02 	 	 0.00000e+00	3.59800e-05	-6.84128e-05	0.00000e+00 	 -4.65370e-02 	 -2.28694e-01 	 2.52000e-04 	 1.74308e+04
9.03990e-02  	  -4.51830e-02 	 	 0.00000e+00	2.92455e-05	-6.28638e-05	0.00000e+00 	 -2.29900e-02 	 -1.26090e-01 	 9.10000e-05 	 1.76098e+04
9.92920e-02  	  -4.67600e-02 	 	 0.00000e+00	2.16867e-05	-6.04156e-05	0.00000e+00 	 -2.26020e-02 	 -1.32809e-01 	 9.00000e-05 	 1.75375e+04
1.08804e-01  	  -4.83120e-02 	 	 0.00000e+00	1.42345e-05	-6.22360e-05	0.00000e+00 	 -4.40360e-02 	 -2.88285e-01 	 2.99000e-04 	 1.75310e+04
1.18938e-01  	  -4.97830e-02 	 	 0.00000e+00	8.45161e-06	-5.28461e-05	0.00000e+00 	 -2.08770e-02 	 -1.55168e-01 	 1.02000e-04 	 1.80358e+04
1.29733e-01  	  -5.12080e-02 	 	 0.00000e+00	2.61305e-06	-4.76959e-05	0.00000e+00 	 -2.02060e-02 	 -1.62540e-01 	 9.60000e-05 	 1.78830e+04
1.41187e-01  	  -5.25570e-02 	 	 0.00000e+00	-3.01384e-06	-4.69439e-05	0.00000e+00 	 -3.77790e-02 	 -3.45397e-01 	 2.90000e-04 	 1.76423e+04
1.53344e-01  	  -5.38250e-02 	 	 0.00000e+00	-6.43908e-06	-3.53608e-05	0.00000e+00 	 -1.70470e-02 	 -1.82320e-01 	 1.01000e-04 	 1.71813e+04
1.66200e-01  	  -5.49970e-02 	 	 0.00000e+00	-9.69354e-06	-2.67677e-05	0.00000e+00 	 -1.61110e-02 	 -1.89992e-01 	 7.90000e-05 	 1.62850e+04
1.79767e-01  	  -5.60740e-02 	 	 0.00000e+00	-1.26581e-05	-2.38693e-05	0.00000e+00 	 -2.84250e-02 	 -3.96133e-01 	 3.15000e-04 	 1.48941e+04
1.94045e-01  	  -5.70320e-02 	 	 0.00000e+00	-1.50696e-05	-1.22250e-05	0.00000e+00 	 -1.20470e-02 	 -2.05822e-01 	 1.38000e-04 	 1.36994e+04
2.09053e-01  	  -5.78760e-02 	 	 0.00000e+00	-1.69629e-05	-6.16148e-06	0.00000e+00 	 -1.09650e-02 	 -2.13421e-01 	 1.21000e-04 	 1.18027e+04
2.24771e-01  	  -5.85950e-02 	 	 0.00000e+00	-1.90897e-05	-4.66790e-06	0.00000e+00 	 -9.63300e-03 	 -2.15411e-01 	 1.09000e-04 	 9.85484e+03
2.41190e-01  	  -5.91830e-02 	 	 0.00000e+00	-2.04144e-05	-1.33808e-05	0.00000e+00 	 -1.40860e-02 	 -4.40522e-01 	 3.28000e-04 	 9.37260e+03
2.58310e-01  	  -5.96110e-02 	 	 0.00000e+00	-1.98372e-05	-1.06532e-05	0.00000e+00 	 -4.70400e-03 	 -2.24592e-01 	 9.70000e-05 	 8.29144e+03
2.76092e-01  	  -5.99040e-02 	 	 0.00000e+00	-1.80486e-05	-1.35831e-05	0.00000e+00 	 -2.91400e-03 	 -2.20281e-01 	 8.80000e-05 	 6.24189e+03
2.94524e-01  	  -6.00310e-02 	 	 0.00000e+00	-1.57703e-05	-2.08120e-05	0.00000e+00 	 -9.31000e-04 	 -4.52335e-01 	 2.29000e-04 	 4.24813e+03
3.13556e-01  	  -5.99940e-02 	 	 0.00000e+00	-1.43632e-05	-1.36665e-05	0.00000e+00 	 1.88500e-03 	 -2.32474e-01 	 8.60000e-05 	 2.60421e+03
3.33157e-01  	  -5.97920e-02 	 	 0.00000e+00	-1.32999e-05	-1.21591e-05	0.00000e+00 	 3.25400e-03 	 -2.29041e-01 	 7.60000e-05 	 1.57920e+03
3.53278e-01  	  -5.94320e-02 	 	 0.00000e+00	-1.24354e-05	-1.18152e-05	0.00000e+00 	 4.71100e-03 	 -2.35702e-01 	 8.20000e-05 	 1.18673e+03
3.73869e-01  	  -5.89170e-02 	 	 0.00000e+00	-1.05972e-05	-1.73495e-05	0.00000e+00 	 1.34620e-02 	 -4.67821e-01 	 2.23000e-04 	 1.37564e+03
3.94871e-01  	  -5.82310e-02 	 	 0.00000e+00	-9.27672e-06	-1.09054e-05	0.00000e+00 	 8.38500e-03 	 -2.26651e-01 	 6.40000e-05 	 1.05335e+03
4.16212e-01  	  -5.74000e-02 	 	 0.00000e+00	-7.64776e-06	-1.01974e-05	0.00000e+00 	 9.86900e-03 	 -2.35499e-01 	 6.80000e-05 	 1.08179e+03
4.37834e-01  	  -5.64200e-02 	 	 0.00000e+00	-5.54585e-06	-1.02339e-05	0.00000e+00 	 1.00660e-02 	 -2.15994e-01 	 7.30000e-05 	 1.20470e+03
4.59658e-01  	  -5.53190e-02 	 	 0.00000e+00	-2.41268e-06	-1.90703e-05	0.00000e+00 	 2.37310e-02 	 -4.42029e-01 	 2.54000e-04 	 1.71734e+03
4.81609e-01  	  -5.40700e-02 	 	 0.00000e+00	-6.58337e-07	-9.70203e-06	0.00000e+00 	 1.36400e-02 	 -2.25301e-01 	 8.00000e-05 	 8.85256e+02
5.03621e-01  	  -5.27180e-02 	 	 0.00000e+00	1.02961e-06	-8.25396e-06	0.00000e+00 	 1.22010e-02 	 -1.89038e-01 	 5.40000e-05 	 7.43186e+02
5.25603e-01  	  -5.12580e-02 	 	 0.00000e+00	2.54003e-06	-7.80652e-06	0.00000e+00 	 1.33200e-02 	 -1.94970e-01 	 4.90000e-05 	 6.06469e+02
5.47494e-01  	  -4.97180e-02 	 	 0.00000e+00	4.14373e-06	-8.14493e-06	0.00000e+00 	 1.42290e-02 	 -1.98420e-01 	 4.50000e-05 	 8.23050e+02
5.69207e-01  	  -4.80960e-02 	 	 0.00000e+00	6.96598e-06	-1.57000e-05	0.00000e+00 	 3.04860e-02 	 -3.96244e-01 	 1.29000e-04 	 9.73966e+02
5.90668e-01  	  -4.63990e-02 	 	 0.00000e+00	8.11413e-06	-9.00735e-06	0.00000e+00 	 1.50650e-02 	 -1.83455e-01 	 4.40000e-05 	 9.33203e+02
6.11810e-01  	  -4.46590e-02 	 	 0.00000e+00	9.53754e-06	-9.33303e-06	0.00000e+00 	 1.46980e-02 	 -1.72846e-01 	 3.60000e-05 	 9.32054e+02
6.32581e-01  	  -4.28800e-02 	 	 0.00000e+00	1.08527e-05	-1.03805e-05	0.00000e+00 	 1.53360e-02 	 -1.74381e-01 	 3.10000e-05 	 9.70860e+02
6.52902e-01  	  -4.10710e-02 	 	 0.00000e+00	1.17877e-05	-1.05092e-05	0.00000e+00 	 1.39390e-02 	 -1.53545e-01 	 2.60000e-05 	 9.75152e+02
6.72723e-01  	  -3.92530e-02 	 	 0.00000e+00	1.28108e-05	-1.27443e-05	0.00000e+00 	 1.45240e-02 	 -1.55472e-01 	 3.10000e-05 	 9.95229e+02
6.92004e-01  	  -3.74250e-02 	 	 0.00000e+00	1.39504e-05	-1.52212e-05	0.00000e+00 	 1.33760e-02 	 -1.39264e-01 	 2.90000e-05 	 1.00383e+03
7.10695e-01  	  -3.56090e-02 	 	 0.00000e+00	1.54182e-05	-1.86621e-05	0.00000e+00 	 1.34870e-02 	 -1.36890e-01 	 2.60000e-05 	 1.03042e+03
7.28767e-01  	  -3.38120e-02 	 	 0.00000e+00	1.70804e-05	-2.20380e-05	0.00000e+00 	 1.03840e-02 	 -1.02666e-01 	 1.60000e-05 	 1.08571e+03
7.46180e-01  	  -3.20270e-02 	 	 0.00000e+00	1.95346e-05	-2.68429e-05	0.00000e+00 	 1.09470e-02 	 -1.05884e-01 	 1.70000e-05 	 1.16851e+03
7.62923e-01  	  -3.02820e-02 	 	 0.00000e+00	2.28456e-05	-3.15909e-05	0.00000e+00 	 1.40140e-02 	 -1.32830e-01 	 2.50000e-05 	 1.22098e+03
7.78977e-01  	  -2.85650e-02 	 	 0.00000e+00	2.67244e-05	-3.45920e-05	0.00000e+00 	 1.52010e-02 	 -1.40956e-01 	 2.50000e-05 	 1.24458e+03
7.94320e-01  	  -2.68940e-02 	 	 0.00000e+00	3.00114e-05	-3.40143e-05	0.00000e+00 	 1.15310e-02 	 -1.04451e-01 	 1.60000e-05 	 1.30024e+03
8.08953e-01  	  -2.52720e-02 	 	 0.00000e+00	3.26066e-05	-3.15773e-05	0.00000e+00 	 1.04310e-02 	 -9.25310e-02 	 1.50000e-05 	 1.26682e+03
8.22884e-01  	  -2.36990e-02 	 	 0.00000e+00	3.41620e-05	-2.91871e-05	0.00000e+00 	 5.96400e-03 	 -5.16110e-02 	 1.00000e-05 	 1.23419e+03
8.36115e-01  	  -2.21780e-02 	 	 0.00000e+00	3.49832e-05	-2.80575e-05	0.00000e+00 	 4.86600e-03 	 -4.12470e-02 	 9.00000e-06 	 1.24472e+03
8.48645e-01  	  -2.07190e-02 	 	 0.00000e+00	3.54207e-05	-2.90272e-05	0.00000e+00 	 3.55900e-03 	 -2.94910e-02 	 6.00000e-06 	 1.19285e+03
8.60495e-01  	  -1.93200e-02 	 	 0.00000e+00	3.48738e-05	-3.01746e-05	0.00000e+00 	 0.00000e+00 	 0.00000e+00 	 0.00000e+00 	 1.42712e+03
8.71674e-01  	  -1.79870e-02 	 	 0.00000e+00	3.41579e-05	-3.69440e-05	0.00000e+00 	 3.15500e-03 	 -2.56930e-02 	 6.00000e-06 	 1.25991e+03
8.82214e-01  	  -1.67150e-02 	 	 0.00000e+00	3.39945e-05	-4.49312e-05	0.00000e+00 	 9.17000e-04 	 -6.94000e-03 	 5.00000e-06 	 1.31784e+03
8.92124e-01  	  -1.55150e-02 	 	 0.00000e+00	3.35958e-05	-5.52315e-05	0.00000e+00 	 3.79000e-04 	 -2.50500e-03 	 5.00000e-06 	 1.27999e+03
9.01434e-01  	  -1.43690e-02 	 	 0.00000e+00	3.43776e-05	-6.86179e-05	0.00000e+00 	 0.00000e+00 	 0.00000e+00 	 0.00000e+00 	 1.75897e+03
9.10166e-01  	  -1.32930e-02 	 	 0.00000e+00	3.62804e-05	-8.30327e-05	0.00000e+00 	 -2.01000e-04 	 2.18000e-03 	 5.00000e-06 	 1.66880e+03
9.18349e-01  	  -1.22680e-02 	 	 0.00000e+00	3.91240e-05	-9.75956e-05	0.00000e+00 	 -7.48000e-04 	 6.57300e-03 	 5.00000e-06 	 1.70919e+03
9.25994e-01  	  -1.13140e-02 	 	 0.00000e+00	4.36561e-05	-1.13551e-04	0.00000e+00 	 0.00000e+00 	 0.00000e+00 	 0.00000e+00 	 1.98214e+03
9.33139e-01  	  -1.04060e-02 	 	 0.00000e+00	4.87716e-05	-1.26150e-04	0.00000e+00 	 -2.14000e-03 	 1.80050e-02 	 8.00000e-06 	 1.59081e+03
9.39815e-01  	  -9.54900e-03 	 	 0.00000e+00	5.54593e-05	-1.39072e-04	0.00000e+00 	 0.00000e+00 	 0.00000e+00 	 0.00000e+00 	 1.53490e+03
9.46032e-01  	  -8.74600e-03 	 	 0.00000e+00	6.21328e-05	-1.46124e-04	0.00000e+00 	 -2.02300e-03 	 1.73700e-02 	 7.00000e-06 	 1.96262e+03
9.51821e-01  	  -7.98300e-03 	 	 0.00000e+00	7.06049e-05	-1.53227e-04	0.00000e+00 	 0.00000e+00 	 0.00000e+00 	 0.00000e+00 	 1.59561e+03
9.57209e-01  	  -7.27500e-03 	 	 0.00000e+00	7.91962e-05	-1.54927e-04	0.00000e+00 	 1.06900e-03 	 -8.64400e-03 	 2.00000e-06 	 1.69658e+03
9.62218e-01  	  -6.60000e-03 	 	 0.00000e+00	8.79164e-05	-1.50059e-04	0.00000e+00 	 0.00000e+00 	 0.00000e+00 	 0.00000e+00 	 1.09304e+03
9.66867e-01  	  -5.97000e-03 	 	 0.00000e+00	9.74625e-05	-1.40197e-04	0.00000e+00 	 0.00000e+00 	 0.00000e+00 	 0.00000e+00 	 1.76938e+03
9.71184e-01  	  -5.37200e-03 	 	 0.00000e+00	1.04375e-04	-1.21595e-04	0.00000e+00 	 -2.84900e-03 	 2.66970e-02 	 1.20000e-05 	 2.23867e+03
9.75181e-01  	  -4.80300e-03 	 	 0.00000e+00	1.10875e-04	-1.02779e-04	0.00000e+00 	 0.00000e+00 	 0.00000e+00 	 0.00000e+00 	 1.27294e+03
9.78895e-01  	  -4.27200e-03 	 	 0.00000e+00	1.14927e-04	-7.23116e-05	0.00000e+00 	 -1.28750e-02 	 1.23792e-01 	 9.00000e-05 	 1.50015e+03
9.82330e-01  	  -3.78700e-03 	 	 0.00000e+00	1.19576e-04	-5.70834e-05	0.00000e+00 	 0.00000e+00 	 0.00000e+00 	 0.00000e+00 	 2.26733e+03
9.85505e-01  	  -3.32400e-03 	 	 0.00000e+00	1.25415e-04	-3.35116e-05	0.00000e+00 	 0.00000e+00 	 0.00000e+00 	 0.00000e+00 	 4.48113e+03
9.88451e-01  	  -2.89700e-03 	 	 0.00000e+00	1.30704e-04	-6.56346e-06	0.00000e+00 	 0.00000e+00 	 0.00000e+00 	 0.00000e+00 	 4.74393e+03
9.91175e-01  	  -2.48900e-03 	 	 0.00000e+00	1.35208e-04	2.13513e-05	0.00000e+00 	 1.20340e-02 	 -1.17645e-01 	 -6.20000e-05 	 3.27501e+03
9.93687e-01  	  -2.09300e-03 	 	 0.00000e+00	1.37395e-04	6.70290e-05	0.00000e+00 	 0.00000e+00 	 0.00000e+00 	 0.00000e+00 	 5.95409e+03
9.96007e-01  	  -1.73000e-03 	 	 0.00000e+00	1.36842e-04	1.10152e-04	0.00000e+00 	 0.00000e+00 	 0.00000e+00 	 0.00000e+00 	 8.41410e+03
9.98156e-01  	  -1.38600e-03 	 	 0.00000e+00	1.36468e-04	1.53970e-04	0.00000e+00 	 0.00000e+00 	 0.00000e+00 	 0.00000e+00 	 9.84077e+03
1.00013e+00  	  -1.06100e-03 	 	 0.00000e+00	1.31840e-04	1.99083e-04	0.00000e+00 	 -2.46000e-03 	 4.68680e-02 	 4.10000e-05 	 5.22519e+03
1.00012e+00  	  -2.24000e-04 	 	 0.00000e+00	1.16230e-04	1.96066e-04	0.00000e+00 	 1.58090e-02 	 -6.42000e-04 	 -1.30000e-05 	 5.26115e+03
1.00010e+00  	  6.14000e-04 	 	 0.00000e+00	9.98992e-05	1.94234e-04	0.00000e+00 	 1.65320e-02 	 -6.61000e-04 	 -1.30000e-05 	 6.98781e+03
1.00009e+00  	  1.45900e-03 	 	 5.00000e-03	9.02987e-05	1.99045e-04	0.00000e+00 	 3.09330e-02 	 4.99470e-02 	 -2.10000e-05 	 6.13758e+03
1.00009e+00  	  1.47500e-03 	 	 1.00000e-02	9.20127e-05	2.15390e-04	0.00000e+00 	 3.10040e-02 	 4.99720e-02 	 -2.00000e-05 	 6.23968e+03
1.00009e+00  	  1.50500e-03 	 	 1.50000e-02	9.43473e-05	2.44958e-04	0.00000e+00 	 5.81510e-02 	 1.13803e-01 	 -6.70000e-05 	 7.33241e+03
1.00009e+00  	  1.53600e-03 	 	 2.00000e-02	9.36224e-05	2.76387e-04	0.00000e+00 	 5.80920e-02 	 1.13836e-01 	 -9.60000e-05 	 7.83544e+03
1.00009e+00  	  1.57300e-03 	 	 2.50000e-02	8.90367e-05	3.12911e-04	0.00000e+00 	 6.39410e-02 	 1.64685e-01 	 -6.10000e-05 	 8.15695e+03
1.00009e+00  	  1.59000e-03 	 	 3.00000e-02	9.10573e-05	3.30359e-04	0.00000e+00 	 6.38530e-02 	 1.64725e-01 	 9.50000e-05 	 8.35034e+03
1.00010e+00  	  1.59600e-03 	 	 3.50000e-02	9.80862e-05	3.35697e-04	0.00000e+00 	 8.29070e-02 	 2.05845e-01 	 4.14000e-04 	 8.46583e+03
1.00010e+00  	  1.59600e-03 	 	 4.00000e-02	9.91181e-05	3.35718e-04	0.00000e+00 	 8.29690e-02 	 2.05818e-01 	 8.59000e-04 	 8.00880e+03
1.00010e+00  	  1.58900e-03 	 	 4.50000e-02	1.00904e-04	3.29358e-04	0.00000e+00 	 9.23980e-02 	 2.56791e-01 	 1.54600e-03 	 6.97694e+03
1.00010e+00  	  1.57600e-03 	 	 5.00000e-02	9.64654e-05	3.15510e-04	0.00000e+00 	 9.27180e-02 	 2.56703e-01 	 2.29700e-03 	 6.89039e+03
1.00009e+00  	  1.55200e-03 	 	 5.50000e-02	8.47982e-05	2.91525e-04	0.00000e+00 	 5.27170e-02 	 1.41853e-01 	 1.21400e-03 	 7.23583e+03
1.00008e+00  	  1.53600e-03 	 	 6.00000e-02	8.28175e-05	2.76179e-04	0.00000e+00 	 5.72800e-02 	 1.41596e-01 	 6.41000e-04 	 7.61322e+03
1.00009e+00  	  1.53500e-03 	 	 6.50000e-02	9.25526e-05	2.74879e-04	0.00000e+00 	 1.05443e-01 	 3.71726e-01 	 1.45900e-03 	 9.75629e+03
1.00010e+00  	  1.49400e-03 	 	 7.00000e-02	9.84909e-05	2.33776e-04	0.00000e+00 	 1.05995e-01 	 3.71662e-01 	 2.28600e-03 	 1.15853e+04